# vtk DataFile Version 2.0
vtk file written by scitools.easyviz
ASCII
           
DATASET STRUCTURED_GRID
DIMENSIONS 11 11 1
POINTS 121 float
-1.0 -1.0 1.0
-0.8 -1.0 0.8
-0.6 -1.0 0.6
-0.4 -1.0 0.4
-0.2 -1.0 0.2
0.0 -1.0 -0
0.2 -1.0 -0.2
0.4 -1.0 -0.4
0.6 -1.0 -0.6
0.8 -1.0 -0.8
1.0 -1.0 -1.0
-1.0 -0.8 0.8
-0.8 -0.8 0.64
-0.6 -0.8 0.48
-0.4 -0.8 0.32
-0.2 -0.8 0.16
0.0 -0.8 -0
0.2 -0.8 -0.16
0.4 -0.8 -0.32
0.6 -0.8 -0.48
0.8 -0.8 -0.64
1.0 -0.8 -0.8
-1.0 -0.6 0.6
-0.8 -0.6 0.48
-0.6 -0.6 0.36
-0.4 -0.6 0.24
-0.2 -0.6 0.12
0.0 -0.6 -0
0.2 -0.6 -0.12
0.4 -0.6 -0.24
0.6 -0.6 -0.36
0.8 -0.6 -0.48
1.0 -0.6 -0.6
-1.0 -0.4 0.4
-0.8 -0.4 0.32
-0.6 -0.4 0.24
-0.4 -0.4 0.16
-0.2 -0.4 0.08
0.0 -0.4 -0
0.2 -0.4 -0.08
0.4 -0.4 -0.16
0.6 -0.4 -0.24
0.8 -0.4 -0.32
1.0 -0.4 -0.4
-1.0 -0.2 0.2
-0.8 -0.2 0.16
-0.6 -0.2 0.12
-0.4 -0.2 0.08
-0.2 -0.2 0.04
0.0 -0.2 -0
0.2 -0.2 -0.04
0.4 -0.2 -0.08
0.6 -0.2 -0.12
0.8 -0.2 -0.16
1.0 -0.2 -0.2
-1.0 0.0 -0
-0.8 0.0 -0
-0.6 0.0 -0
-0.4 0.0 -0
-0.2 0.0 -0
0.0 0.0 0.0
0.2 0.0 0.0
0.4 0.0 0.0
0.6 0.0 0.0
0.8 0.0 0.0
1.0 0.0 0.0
-1.0 0.2 -0.2
-0.8 0.2 -0.16
-0.6 0.2 -0.12
-0.4 0.2 -0.08
-0.2 0.2 -0.04
0.0 0.2 0.0
0.2 0.2 0.04
0.4 0.2 0.08
0.6 0.2 0.12
0.8 0.2 0.16
1.0 0.2 0.2
-1.0 0.4 -0.4
-0.8 0.4 -0.32
-0.6 0.4 -0.24
-0.4 0.4 -0.16
-0.2 0.4 -0.08
0.0 0.4 0.0
0.2 0.4 0.08
0.4 0.4 0.16
0.6 0.4 0.24
0.8 0.4 0.32
1.0 0.4 0.4
-1.0 0.6 -0.6
-0.8 0.6 -0.48
-0.6 0.6 -0.36
-0.4 0.6 -0.24
-0.2 0.6 -0.12
0.0 0.6 0.0
0.2 0.6 0.12
0.4 0.6 0.24
0.6 0.6 0.36
0.8 0.6 0.48
1.0 0.6 0.6
-1.0 0.8 -0.8
-0.8 0.8 -0.64
-0.6 0.8 -0.48
-0.4 0.8 -0.32
-0.2 0.8 -0.16
0.0 0.8 0.0
0.2 0.8 0.16
0.4 0.8 0.32
0.6 0.8 0.48
0.8 0.8 0.64
1.0 0.8 0.8
-1.0 1.0 -1.0
-0.8 1.0 -0.8
-0.6 1.0 -0.6
-0.4 1.0 -0.4
-0.2 1.0 -0.2
0.0 1.0 0.0
0.2 1.0 0.2
0.4 1.0 0.4
0.6 1.0 0.6
0.8 1.0 0.8
1.0 1.0 1.0

POINT_DATA 121
SCALARS scalars float
LOOKUP_TABLE default
1.0
0.8
0.6
0.4
0.2
-0
-0.2
-0.4
-0.6
-0.8
-1.0
0.8
0.64
0.48
0.32
0.16
-0
-0.16
-0.32
-0.48
-0.64
-0.8
0.6
0.48
0.36
0.24
0.12
-0
-0.12
-0.24
-0.36
-0.48
-0.6
0.4
0.32
0.24
0.16
0.08
-0
-0.08
-0.16
-0.24
-0.32
-0.4
0.2
0.16
0.12
0.08
0.04
-0
-0.04
-0.08
-0.12
-0.16
-0.2
-0
-0
-0
-0
-0
0.0
0.0
0.0
0.0
0.0
0.0
-0.2
-0.16
-0.12
-0.08
-0.04
0.0
0.04
0.08
0.12
0.16
0.2
-0.4
-0.32
-0.24
-0.16
-0.08
0.0
0.08
0.16
0.24
0.32
0.4
-0.6
-0.48
-0.36
-0.24
-0.12
0.0
0.12
0.24
0.36
0.48
0.6
-0.8
-0.64
-0.48
-0.32
-0.16
0.0
0.16
0.32
0.48
0.64
0.8
-1.0
-0.8
-0.6
-0.4
-0.2
0.0
0.2
0.4
0.6
0.8
1.0
